500
Atoms. Timestep: 0
H 0 0 0
H 0.839798 0.839798 0
H 0.839798 0 0.839798
H 0 0.839798 0.839798
H 1.6796 0 0
H 2.51939 0.839798 0
H 2.51939 0 0.839798
H 1.6796 0.839798 0.839798
H 3.35919 0 0
H 4.19899 0.839798 0
H 4.19899 0 0.839798
H 3.35919 0.839798 0.839798
H 5.03879 0 0
H 5.87859 0.839798 0
H 5.87859 0 0.839798
H 5.03879 0.839798 0.839798
H 6.71838 0 0
H 7.55818 0.839798 0
H 7.55818 0 0.839798
H 6.71838 0.839798 0.839798
H 0 1.6796 0
H 0.839798 2.51939 0
H 0.839798 1.6796 0.839798
H 0 2.51939 0.839798
H 1.6796 1.6796 0
H 2.51939 2.51939 0
H 2.51939 1.6796 0.839798
H 1.6796 2.51939 0.839798
H 3.35919 1.6796 0
H 4.19899 2.51939 0
H 4.19899 1.6796 0.839798
H 3.35919 2.51939 0.839798
H 5.03879 1.6796 0
H 5.87859 2.51939 0
H 5.87859 1.6796 0.839798
H 5.03879 2.51939 0.839798
H 6.71838 1.6796 0
H 7.55818 2.51939 0
H 7.55818 1.6796 0.839798
H 6.71838 2.51939 0.839798
H 0 3.35919 0
H 0.839798 4.19899 0
H 0.839798 3.35919 0.839798
H 0 4.19899 0.839798
H 1.6796 3.35919 0
H 2.51939 4.19899 0
H 2.51939 3.35919 0.839798
H 1.6796 4.19899 0.839798
H 3.35919 3.35919 0
H 4.19899 4.19899 0
H 4.19899 3.35919 0.839798
H 3.35919 4.19899 0.839798
H 5.03879 3.35919 0
H 5.87859 4.19899 0
H 5.87859 3.35919 0.839798
H 5.03879 4.19899 0.839798
H 6.71838 3.35919 0
H 7.55818 4.19899 0
H 7.55818 3.35919 0.839798
H 6.71838 4.19899 0.839798
H 0 5.03879 0
H 0.839798 5.87859 0
H 0.839798 5.03879 0.839798
H 0 5.87859 0.839798
H 1.6796 5.03879 0
H 2.51939 5.87859 0
H 2.51939 5.03879 0.839798
H 1.6796 5.87859 0.839798
H 3.35919 5.03879 0
H 4.19899 5.87859 0
H 4.19899 5.03879 0.839798
H 3.35919 5.87859 0.839798
H 5.03879 5.03879 0
H 5.87859 5.87859 0
H 5.87859 5.03879 0.839798
H 5.03879 5.87859 0.839798
H 6.71838 5.03879 0
H 7.55818 5.87859 0
H 7.55818 5.03879 0.839798
H 6.71838 5.87859 0.839798
H 0 6.71838 0
H 0.839798 7.55818 0
H 0.839798 6.71838 0.839798
H 0 7.55818 0.839798
H 1.6796 6.71838 0
H 2.51939 7.55818 0
H 2.51939 6.71838 0.839798
H 1.6796 7.55818 0.839798
H 3.35919 6.71838 0
H 4.19899 7.55818 0
H 4.19899 6.71838 0.839798
H 3.35919 7.55818 0.839798
H 5.03879 6.71838 0
H 5.87859 7.55818 0
H 5.87859 6.71838 0.839798
H 5.03879 7.55818 0.839798
H 6.71838 6.71838 0
H 7.55818 7.55818 0
H 7.55818 6.71838 0.839798
H 6.71838 7.55818 0.839798
H 0 0 1.6796
H 0.839798 0.839798 1.6796
H 0.839798 0 2.51939
H 0 0.839798 2.51939
H 1.6796 0 1.6796
H 2.51939 0.839798 1.6796
H 2.51939 0 2.51939
H 1.6796 0.839798 2.51939
H 3.35919 0 1.6796
H 4.19899 0.839798 1.6796
H 4.19899 0 2.51939
H 3.35919 0.839798 2.51939
H 5.03879 0 1.6796
H 5.87859 0.839798 1.6796
H 5.87859 0 2.51939
H 5.03879 0.839798 2.51939
H 6.71838 0 1.6796
H 7.55818 0.839798 1.6796
H 7.55818 0 2.51939
H 6.71838 0.839798 2.51939
H 0 1.6796 1.6796
H 0.839798 2.51939 1.6796
H 0.839798 1.6796 2.51939
H 0 2.51939 2.51939
H 1.6796 1.6796 1.6796
H 2.51939 2.51939 1.6796
H 2.51939 1.6796 2.51939
H 1.6796 2.51939 2.51939
H 3.35919 1.6796 1.6796
H 4.19899 2.51939 1.6796
H 4.19899 1.6796 2.51939
H 3.35919 2.51939 2.51939
H 5.03879 1.6796 1.6796
H 5.87859 2.51939 1.6796
H 5.87859 1.6796 2.51939
H 5.03879 2.51939 2.51939
H 6.71838 1.6796 1.6796
H 7.55818 2.51939 1.6796
H 7.55818 1.6796 2.51939
H 6.71838 2.51939 2.51939
H 0 3.35919 1.6796
H 0.839798 4.19899 1.6796
H 0.839798 3.35919 2.51939
H 0 4.19899 2.51939
H 1.6796 3.35919 1.6796
H 2.51939 4.19899 1.6796
H 2.51939 3.35919 2.51939
H 1.6796 4.19899 2.51939
H 3.35919 3.35919 1.6796
H 4.19899 4.19899 1.6796
H 4.19899 3.35919 2.51939
H 3.35919 4.19899 2.51939
H 5.03879 3.35919 1.6796
H 5.87859 4.19899 1.6796
H 5.87859 3.35919 2.51939
H 5.03879 4.19899 2.51939
H 6.71838 3.35919 1.6796
H 7.55818 4.19899 1.6796
H 7.55818 3.35919 2.51939
H 6.71838 4.19899 2.51939
H 0 5.03879 1.6796
H 0.839798 5.87859 1.6796
H 0.839798 5.03879 2.51939
H 0 5.87859 2.51939
H 1.6796 5.03879 1.6796
H 2.51939 5.87859 1.6796
H 2.51939 5.03879 2.51939
H 1.6796 5.87859 2.51939
H 3.35919 5.03879 1.6796
H 4.19899 5.87859 1.6796
H 4.19899 5.03879 2.51939
H 3.35919 5.87859 2.51939
H 5.03879 5.03879 1.6796
H 5.87859 5.87859 1.6796
H 5.87859 5.03879 2.51939
H 5.03879 5.87859 2.51939
H 6.71838 5.03879 1.6796
H 7.55818 5.87859 1.6796
H 7.55818 5.03879 2.51939
H 6.71838 5.87859 2.51939
H 0 6.71838 1.6796
H 0.839798 7.55818 1.6796
H 0.839798 6.71838 2.51939
H 0 7.55818 2.51939
H 1.6796 6.71838 1.6796
H 2.51939 7.55818 1.6796
H 2.51939 6.71838 2.51939
H 1.6796 7.55818 2.51939
H 3.35919 6.71838 1.6796
H 4.19899 7.55818 1.6796
H 4.19899 6.71838 2.51939
H 3.35919 7.55818 2.51939
H 5.03879 6.71838 1.6796
H 5.87859 7.55818 1.6796
H 5.87859 6.71838 2.51939
H 5.03879 7.55818 2.51939
H 6.71838 6.71838 1.6796
H 7.55818 7.55818 1.6796
H 7.55818 6.71838 2.51939
H 6.71838 7.55818 2.51939
H 0 0 3.35919
H 0.839798 0.839798 3.35919
H 0.839798 0 4.19899
H 0 0.839798 4.19899
H 1.6796 0 3.35919
H 2.51939 0.839798 3.35919
H 2.51939 0 4.19899
H 1.6796 0.839798 4.19899
H 3.35919 0 3.35919
H 4.19899 0.839798 3.35919
H 4.19899 0 4.19899
H 3.35919 0.839798 4.19899
H 5.03879 0 3.35919
H 5.87859 0.839798 3.35919
H 5.87859 0 4.19899
H 5.03879 0.839798 4.19899
H 6.71838 0 3.35919
H 7.55818 0.839798 3.35919
H 7.55818 0 4.19899
H 6.71838 0.839798 4.19899
H 0 1.6796 3.35919
H 0.839798 2.51939 3.35919
H 0.839798 1.6796 4.19899
H 0 2.51939 4.19899
H 1.6796 1.6796 3.35919
H 2.51939 2.51939 3.35919
H 2.51939 1.6796 4.19899
H 1.6796 2.51939 4.19899
H 3.35919 1.6796 3.35919
H 4.19899 2.51939 3.35919
H 4.19899 1.6796 4.19899
H 3.35919 2.51939 4.19899
H 5.03879 1.6796 3.35919
H 5.87859 2.51939 3.35919
H 5.87859 1.6796 4.19899
H 5.03879 2.51939 4.19899
H 6.71838 1.6796 3.35919
H 7.55818 2.51939 3.35919
H 7.55818 1.6796 4.19899
H 6.71838 2.51939 4.19899
H 0 3.35919 3.35919
H 0.839798 4.19899 3.35919
H 0.839798 3.35919 4.19899
H 0 4.19899 4.19899
H 1.6796 3.35919 3.35919
H 2.51939 4.19899 3.35919
H 2.51939 3.35919 4.19899
H 1.6796 4.19899 4.19899
H 3.35919 3.35919 3.35919
H 4.19899 4.19899 3.35919
H 4.19899 3.35919 4.19899
H 3.35919 4.19899 4.19899
H 5.03879 3.35919 3.35919
H 5.87859 4.19899 3.35919
H 5.87859 3.35919 4.19899
H 5.03879 4.19899 4.19899
H 6.71838 3.35919 3.35919
H 7.55818 4.19899 3.35919
H 7.55818 3.35919 4.19899
H 6.71838 4.19899 4.19899
H 0 5.03879 3.35919
H 0.839798 5.87859 3.35919
H 0.839798 5.03879 4.19899
H 0 5.87859 4.19899
H 1.6796 5.03879 3.35919
H 2.51939 5.87859 3.35919
H 2.51939 5.03879 4.19899
H 1.6796 5.87859 4.19899
H 3.35919 5.03879 3.35919
H 4.19899 5.87859 3.35919
H 4.19899 5.03879 4.19899
H 3.35919 5.87859 4.19899
H 5.03879 5.03879 3.35919
H 5.87859 5.87859 3.35919
H 5.87859 5.03879 4.19899
H 5.03879 5.87859 4.19899
H 6.71838 5.03879 3.35919
H 7.55818 5.87859 3.35919
H 7.55818 5.03879 4.19899
H 6.71838 5.87859 4.19899
H 0 6.71838 3.35919
H 0.839798 7.55818 3.35919
H 0.839798 6.71838 4.19899
H 0 7.55818 4.19899
H 1.6796 6.71838 3.35919
H 2.51939 7.55818 3.35919
H 2.51939 6.71838 4.19899
H 1.6796 7.55818 4.19899
H 3.35919 6.71838 3.35919
H 4.19899 7.55818 3.35919
H 4.19899 6.71838 4.19899
H 3.35919 7.55818 4.19899
H 5.03879 6.71838 3.35919
H 5.87859 7.55818 3.35919
H 5.87859 6.71838 4.19899
H 5.03879 7.55818 4.19899
H 6.71838 6.71838 3.35919
H 7.55818 7.55818 3.35919
H 7.55818 6.71838 4.19899
H 6.71838 7.55818 4.19899
H 0 0 5.03879
H 0.839798 0.839798 5.03879
H 0.839798 0 5.87859
H 0 0.839798 5.87859
H 1.6796 0 5.03879
H 2.51939 0.839798 5.03879
H 2.51939 0 5.87859
H 1.6796 0.839798 5.87859
H 3.35919 0 5.03879
H 4.19899 0.839798 5.03879
H 4.19899 0 5.87859
H 3.35919 0.839798 5.87859
H 5.03879 0 5.03879
H 5.87859 0.839798 5.03879
H 5.87859 0 5.87859
H 5.03879 0.839798 5.87859
H 6.71838 0 5.03879
H 7.55818 0.839798 5.03879
H 7.55818 0 5.87859
H 6.71838 0.839798 5.87859
H 0 1.6796 5.03879
H 0.839798 2.51939 5.03879
H 0.839798 1.6796 5.87859
H 0 2.51939 5.87859
H 1.6796 1.6796 5.03879
H 2.51939 2.51939 5.03879
H 2.51939 1.6796 5.87859
H 1.6796 2.51939 5.87859
H 3.35919 1.6796 5.03879
H 4.19899 2.51939 5.03879
H 4.19899 1.6796 5.87859
H 3.35919 2.51939 5.87859
H 5.03879 1.6796 5.03879
H 5.87859 2.51939 5.03879
H 5.87859 1.6796 5.87859
H 5.03879 2.51939 5.87859
H 6.71838 1.6796 5.03879
H 7.55818 2.51939 5.03879
H 7.55818 1.6796 5.87859
H 6.71838 2.51939 5.87859
H 0 3.35919 5.03879
H 0.839798 4.19899 5.03879
H 0.839798 3.35919 5.87859
H 0 4.19899 5.87859
H 1.6796 3.35919 5.03879
H 2.51939 4.19899 5.03879
H 2.51939 3.35919 5.87859
H 1.6796 4.19899 5.87859
H 3.35919 3.35919 5.03879
H 4.19899 4.19899 5.03879
H 4.19899 3.35919 5.87859
H 3.35919 4.19899 5.87859
H 5.03879 3.35919 5.03879
H 5.87859 4.19899 5.03879
H 5.87859 3.35919 5.87859
H 5.03879 4.19899 5.87859
H 6.71838 3.35919 5.03879
H 7.55818 4.19899 5.03879
H 7.55818 3.35919 5.87859
H 6.71838 4.19899 5.87859
H 0 5.03879 5.03879
H 0.839798 5.87859 5.03879
H 0.839798 5.03879 5.87859
H 0 5.87859 5.87859
H 1.6796 5.03879 5.03879
H 2.51939 5.87859 5.03879
H 2.51939 5.03879 5.87859
H 1.6796 5.87859 5.87859
H 3.35919 5.03879 5.03879
H 4.19899 5.87859 5.03879
H 4.19899 5.03879 5.87859
H 3.35919 5.87859 5.87859
H 5.03879 5.03879 5.03879
H 5.87859 5.87859 5.03879
H 5.87859 5.03879 5.87859
H 5.03879 5.87859 5.87859
H 6.71838 5.03879 5.03879
H 7.55818 5.87859 5.03879
H 7.55818 5.03879 5.87859
H 6.71838 5.87859 5.87859
H 0 6.71838 5.03879
H 0.839798 7.55818 5.03879
H 0.839798 6.71838 5.87859
H 0 7.55818 5.87859
H 1.6796 6.71838 5.03879
H 2.51939 7.55818 5.03879
H 2.51939 6.71838 5.87859
H 1.6796 7.55818 5.87859
H 3.35919 6.71838 5.03879
H 4.19899 7.55818 5.03879
H 4.19899 6.71838 5.87859
H 3.35919 7.55818 5.87859
H 5.03879 6.71838 5.03879
H 5.87859 7.55818 5.03879
H 5.87859 6.71838 5.87859
H 5.03879 7.55818 5.87859
H 6.71838 6.71838 5.03879
H 7.55818 7.55818 5.03879
H 7.55818 6.71838 5.87859
H 6.71838 7.55818 5.87859
H 0 0 6.71838
H 0.839798 0.839798 6.71838
H 0.839798 0 7.55818
H 0 0.839798 7.55818
H 1.6796 0 6.71838
H 2.51939 0.839798 6.71838
H 2.51939 0 7.55818
H 1.6796 0.839798 7.55818
H 3.35919 0 6.71838
H 4.19899 0.839798 6.71838
H 4.19899 0 7.55818
H 3.35919 0.839798 7.55818
H 5.03879 0 6.71838
H 5.87859 0.839798 6.71838
H 5.87859 0 7.55818
H 5.03879 0.839798 7.55818
H 6.71838 0 6.71838
H 7.55818 0.839798 6.71838
H 7.55818 0 7.55818
H 6.71838 0.839798 7.55818
H 0 1.6796 6.71838
H 0.839798 2.51939 6.71838
H 0.839798 1.6796 7.55818
H 0 2.51939 7.55818
H 1.6796 1.6796 6.71838
H 2.51939 2.51939 6.71838
H 2.51939 1.6796 7.55818
H 1.6796 2.51939 7.55818
H 3.35919 1.6796 6.71838
H 4.19899 2.51939 6.71838
H 4.19899 1.6796 7.55818
H 3.35919 2.51939 7.55818
H 5.03879 1.6796 6.71838
H 5.87859 2.51939 6.71838
H 5.87859 1.6796 7.55818
H 5.03879 2.51939 7.55818
H 6.71838 1.6796 6.71838
H 7.55818 2.51939 6.71838
H 7.55818 1.6796 7.55818
H 6.71838 2.51939 7.55818
H 0 3.35919 6.71838
H 0.839798 4.19899 6.71838
H 0.839798 3.35919 7.55818
H 0 4.19899 7.55818
H 1.6796 3.35919 6.71838
H 2.51939 4.19899 6.71838
H 2.51939 3.35919 7.55818
H 1.6796 4.19899 7.55818
H 3.35919 3.35919 6.71838
H 4.19899 4.19899 6.71838
H 4.19899 3.35919 7.55818
H 3.35919 4.19899 7.55818
H 5.03879 3.35919 6.71838
H 5.87859 4.19899 6.71838
H 5.87859 3.35919 7.55818
H 5.03879 4.19899 7.55818
H 6.71838 3.35919 6.71838
H 7.55818 4.19899 6.71838
H 7.55818 3.35919 7.55818
H 6.71838 4.19899 7.55818
H 0 5.03879 6.71838
H 0.839798 5.87859 6.71838
H 0.839798 5.03879 7.55818
H 0 5.87859 7.55818
H 1.6796 5.03879 6.71838
H 2.51939 5.87859 6.71838
H 2.51939 5.03879 7.55818
H 1.6796 5.87859 7.55818
H 3.35919 5.03879 6.71838
H 4.19899 5.87859 6.71838
H 4.19899 5.03879 7.55818
H 3.35919 5.87859 7.55818
H 5.03879 5.03879 6.71838
H 5.87859 5.87859 6.71838
H 5.87859 5.03879 7.55818
H 5.03879 5.87859 7.55818
H 6.71838 5.03879 6.71838
H 7.55818 5.87859 6.71838
H 7.55818 5.03879 7.55818
H 6.71838 5.87859 7.55818
H 0 6.71838 6.71838
H 0.839798 7.55818 6.71838
H 0.839798 6.71838 7.55818
H 0 7.55818 7.55818
H 1.6796 6.71838 6.71838
H 2.51939 7.55818 6.71838
H 2.51939 6.71838 7.55818
H 1.6796 7.55818 7.55818
H 3.35919 6.71838 6.71838
H 4.19899 7.55818 6.71838
H 4.19899 6.71838 7.55818
H 3.35919 7.55818 7.55818
H 5.03879 6.71838 6.71838
H 5.87859 7.55818 6.71838
H 5.87859 6.71838 7.55818
H 5.03879 7.55818 7.55818
H 6.71838 6.71838 6.71838
H 7.55818 7.55818 6.71838
H 7.55818 6.71838 7.55818
H 6.71838 7.55818 7.55818
500
Atoms. Timestep: 10
H -0.0081427 -0.0363436 -0.0958967
H 0.777751 0.90787 0.0815127
H 0.777814 -0.0338366 0.899189
H 0.0811855 0.931606 0.813433
H 1.63598 -0.0317994 -0.00708449
H 2.48156 0.808561 -0.0835092
H 2.54126 -0.0810154 0.742194
H 1.60132 0.909499 0.899167
H 3.29989 0.0798094 -0.0774084
H 4.25007 0.934838 0.0148383
H 4.22313 -0.103831 0.931396
H 3.37537 0.803388 0.82079
H 4.96384 0.00569965 -0.0577482
H 5.84863 0.848995 -0.0952123
H 5.96642 -0.0202112 0.771978
H 5.12735 0.863803 0.897083
H 6.80161 -0.0929951 -0.0769794
H 7.52794 0.759752 -0.0236583
H 7.64452 0.0601946 0.780296
H 6.79578 0.757053 0.770755
H 0.0357643 1.71513 0.0639154
H 0.912748 2.52568 0.0683089
H 0.863483 1.75091 0.814113
H 0.0543323 2.51979 0.889526
H 1.72038 1.60116 -0.0174235
H 2.43495 2.54986 0.0933962
H 2.53109 1.72286 0.902212
H 1.68936 2.47623 0.887916
H 3.36971 1.72059 0.0797938
H 4.2747 2.61241 0.0684236
H 4.13569 1.65362 0.74841
H 3.40815 2.43529 0.940456
H 5.08518 1.72671 -0.0330274
H 5.8696 2.48096 -0.0789451
H 5.97845 1.60555 0.743661
H 5.08181 2.50988 0.930191
H 6.72948 1.73114 0.0867182
H 7.61914 2.44046 0.0946283
H 7.49262 1.60785 0.791672
H 6.73006 2.4563 0.805218
H 0.0820873 3.3306 0.004695
H 0.880596 4.1317 -0.0566055
H 0.773216 3.44285 0.767626
H 0.0160996 4.17852 0.750822
H 1.57965 3.43408 0.0734894
H 2.43896 4.20098 0.033611
H 2.43986 3.32979 0.855315
H 1.66971 4.11262 0.872087
H 3.2607 3.37876 -0.051906
H 4.19799 4.1685 -0.0669943
H 4.18717 3.35623 0.858203
H 3.39328 4.1617 0.76245
H 5.10563 3.29227 0.0426574
H 5.94346 4.2777 -0.0432718
H 5.89782 3.27777 0.873576
H 5.01815 4.1388 0.822246
H 6.68789 3.38837 0.104959
H 7.55511 4.18569 0.019467
H 7.48973 3.31615 0.845013
H 6.78482 4.2193 0.786808
H -0.0429259 5.06118 -0.0570358
H 0.747633 5.93917 -0.0592978
H 0.791319 5.0813 0.909188
H 0.0991111 5.83932 0.757657
H 1.71733 5.01168 -0.0941653
H 2.53801 5.83609 0.0937742
H 2.56572 4.98129 0.776519
H 1.62214 5.79352 0.776184
H 3.34967 4.9623 0.00994529
H 4.26859 5.89496 0.0440053
H 4.296 4.99607 0.856448
H 3.30333 5.8724 0.825231
H 4.95749 5.07872 0.0373552
H 5.97815 5.84831 -0.00136038
H 5.78559 5.10757 0.817259
H 5.00728 5.82476 0.744022
H 6.76732 5.06762 0.0466536
H 7.59894 5.89495 0.04769
H 7.51329 5.00554 0.859585
H 6.72405 5.91251 0.852354
H -0.0346832 6.69958 -0.00441205
H 0.904691 7.62263 -0.0975326
H 0.913176 6.68504 0.909885
H 0.0788944 7.65196 0.911634
H 1.58183 6.67133 -0.0643541
H 2.45831 7.51302 0.0424454
H 2.41486 6.65888 0.791502
H 1.7463 7.63645 0.813322
H 3.39765 6.74353 0.0323286
H 4.21793 7.53708 0.0494787
H 4.28793 6.72355 0.870787
H 3.4318 7.62255 0.843623
H 5.00348 6.69919 0.0627344
H 5.88457 7.54875 0.0919824
H 5.93884 6.70881 0.890523
H 5.12707 7.61915 0.903852
H 6.72569 6.75221 -0.0547457
H 7.46302 7.58462 -0.0266388
H 7.65761 6.70337 0.796877
H 6.6706 7.62926 0.784621
H -0.00132303 -0.0324885 1.73843
H 0.919021 0.753235 1.74011
H 0.745039 0.0625335 2.55859
H 0.0776243 0.84908 2.53589
H 1.62212 -0.0148508 1.76412
H 2.48792 0.887954 1.68484
H 2.48767 0.0319643 2.58023
H 1.65092 0.774015 2.5958
H 3.33356 0.0139591 1.67201
H 4.10219 0.849209 1.63895
H 4.18686 -0.0273564 2.50413
H 3.27808 0.911579 2.59614
H 5.13264 0.0228359 1.77314
H 5.89349 0.744345 1.65529
H 5.84423 0.00871831 2.52335
H 5.03844 0.838772 2.58723
H 6.66631 0.0492361 1.7488
H 7.5954 0.736871 1.65888
H 7.4659 -0.0419461 2.51044
H 6.73892 0.804052 2.53798
H 0.0335085 1.71746 1.77897
H 0.92283 2.42033 1.72198
H 0.873877 1.69339 2.54322
H 0.0806045 2.42877 2.45333
H 1.67943 1.66393 1.6179
H 2.55117 2.54734 1.67123
H 2.61766 1.75134 2.46017
H 1.74852 2.44274 2.57956
H 3.29051 1.65451 1.66276
H 4.16337 2.48603 1.69698
H 4.1038 1.62841 2.53474
H 3.33395 2.52929 2.56835
H 5.0587 1.63788 1.5914
H 5.79156 2.56135 1.65769
H 5.89734 1.607 2.43157
H 5.1126 2.45501 2.49012
H 6.74642 1.77332 1.64846
H 7.48841 2.45723 1.73881
H 7.63373 1.77263 2.43046
H 6.66715 2.46011 2.4594
H -0.0971013 3.26378 1.6914
H 0.850702 4.22159 1.68159
H 0.936485 3.25838 2.6032
H -0.0417434 4.14632 2.51406
H 1.62107 3.35967 1.68522
H 2.59516 4.19143 1.72158
H 2.56889 3.35774 2.54043
H 1.66872 4.29229 2.46052
H 3.29764 3.29944 1.67396
H 4.17809 4.29555 1.6863
H 4.21456 3.36076 2.5444
H 3.45694 4.25442 2.50985
H 5.04051 3.36852 1.75511
H 5.86235 4.17931 1.58449
H 5.95409 3.45036 2.61287
H 4.96211 4.2245 2.48788
H 6.62389 3.42172 1.63208
H 7.65051 4.12079 1.74588
H 7.46165 3.3092 2.46618
H 6.77039 4.23742 2.43235
H -0.0634685 4.93646 1.66913
H 0.892007 5.78932 1.74787
H 0.794781 5.12128 2.46444
H -0.00691406 5.7955 2.5722
H 1.68553 5.1307 1.78306
H 2.4365 5.83865 1.73605
H 2.43317 5.12974 2.6051
H 1.67281 5.9742 2.53426
H 3.38516 5.07912 1.64332
H 4.24507 5.81386 1.62927
H 4.13293 5.04416 2.48439
H 3.302 5.8737 2.45641
H 4.96834 4.94026 1.66571
H 5.79221 5.78306 1.62102
H 5.84516 5.02985 2.4753
H 5.13184 5.84487 2.53435
H 6.75382 4.93617 1.73652
H 7.47534 5.82215 1.78614
H 7.61124 5.06759 2.52232
H 6.65756 5.91924 2.53549
H 0.0897104 6.76397 1.58141
H 0.887246 7.53705 1.78164
H 0.809256 6.75465 2.55629
H 0.072283 7.47396 2.51102
H 1.69232 6.61916 1.67149
H 2.56261 7.60431 1.67978
H 2.58939 6.68601 2.45537
H 1.59967 7.65826 2.59689
H 3.34126 6.77256 1.67608
H 4.1129 7.56481 1.66636
H 4.25649 6.65313 2.46734
H 3.43641 7.57991 2.57526
H 5.04337 6.77258 1.64033
H 5.81562 7.63814 1.74189
H 5.86482 6.81986 2.59693
H 4.95762 7.54641 2.5127
H 6.76663 6.68323 1.68496
H 7.56304 7.63695 1.76726
H 7.51424 6.7372 2.57855
H 6.69453 7.59755 2.44225
H -0.0747054 -0.0110897 3.44551
H 0.871931 0.75998 3.39177
H 0.9132 -0.00226892 4.23246
H -0.0166566 0.762932 4.10036
H 1.7665 -0.0218198 3.42566
H 2.54222 0.796797 3.44193
H 2.54876 -0.0412649 4.12156
H 1.65392 0.771379 4.11688
H 3.36328 0.0616458 3.40872
H 4.1373 0.862449 3.45597
H 4.11673 -0.0621484 4.17057
H 3.38457 0.898914 4.15776
H 5.13608 0.0750201 3.32506
H 5.7788 0.937732 3.41856
H 5.95533 0.0599676 4.20017
H 4.94712 0.789988 4.12395
H 6.75339 -0.0984134 3.39641
H 7.54183 0.848835 3.2948
H 7.4816 -0.0946467 4.15494
H 6.72307 0.935774 4.18949
H 0.0969938 1.58792 3.28095
H 0.932832 2.53511 3.27449
H 0.772622 1.7767 4.13032
H 0.0397263 2.59618 4.21915
H 1.63883 1.66271 3.41133
H 2.50605 2.4616 3.41376
H 2.45208 1.61317 4.2663
H 1.69987 2.45875 4.20567
H 3.41328 1.74585 3.40358
H 4.18571 2.50616 3.38586
H 4.22284 1.7192 4.1663
H 3.41798 2.58633 4.15983
H 5.02199 1.61974 3.42496
H 5.78805 2.44384 3.35609
H 5.81933 1.58574 4.27865
H 5.05927 2.46028 4.17046
H 6.71155 1.7475 3.46173
H 7.56183 2.55296 3.45208
H 7.48906 1.63801 4.19091
H 6.65404 2.55102 4.22768
H -0.0338918 3.26425 3.41809
H 0.753467 4.18982 3.35985
H 0.899763 3.31994 4.1351
H -0.0606652 4.20447 4.14025
H 1.60468 3.3998 3.27027
H 2.53158 4.20549 3.38183
H 2.45064 3.31216 4.25546
H 1.65433 4.17087 4.2083
H 3.37497 3.43849 3.28598
H 4.2787 4.28495 3.31521
H 4.16953 3.35289 4.14079
H 3.41199 4.10629 4.21799
H 5.14036 3.30725 3.39773
H 5.90398 4.112 3.38589
H 5.97735 3.44963 4.20127
H 5.12262 4.18353 4.2182
H 6.80623 3.26204 3.29352
H 7.58512 4.20032 3.31257
H 7.58609 3.30075 4.14381
H 6.6196 4.29796 4.19205
H -2.89841e-05 4.99632 3.2686
H 0.744522 5.89818 3.32004
H 0.93353 4.98837 4.28211
H 0.07572 5.78995 4.10873
H 1.65515 5.05792 3.36517
H 2.43175 5.82557 3.4035
H 2.42788 5.09797 4.11662
H 1.63575 5.87566 4.24901
H 3.35915 4.99649 3.38879
H 4.2616 5.95976 3.40039
H 4.15823 5.1215 4.18362
H 3.43388 5.82788 4.10842
H 5.02347 4.95089 3.29866
H 5.84033 5.83805 3.27993
H 5.8237 5.09628 4.13786
H 5.12108 5.8389 4.18527
H 6.72214 5.05002 3.42881
H 7.46073 5.87941 3.34449
H 7.50994 5.09989 4.12699
H 6.6327 5.84638 4.15975
H 0.00900607 6.72692 3.44061
H 0.783913 7.49295 3.35416
H 0.750355 6.67685 4.16952
H 0.0411025 7.52751 4.13865
H 1.76498 6.76559 3.28872
H 2.50199 7.6028 3.42371
H 2.48947 6.75856 4.18913
H 1.77424 7.50926 4.26045
H 3.45125 6.7151 3.45722
H 4.20701 7.51984 3.40312
H 4.1711 6.75813 4.23207
H 3.4461 7.52232 4.25625
H 5.10549 6.70354 3.43405
H 5.84089 7.62103 3.43816
H 5.90727 6.81781 4.16244
H 4.97679 7.60606 4.2309
H 6.7175 6.6819 3.31244
H 7.53783 7.59787 3.40755
H 7.5011 6.78446 4.13665
H 6.61572 7.62239 4.24665
H 0.0142723 0.0701438 4.9762
H 0.928171 0.922132 5.07855
H 0.75241 -0.0322466 5.85843
H -0.0162769 0.785207 5.90333
H 1.65271 0.0634861 5.02914
H 2.4357 0.936817 4.97213
H 2.46913 -0.0848972 5.95393
H 1.76245 0.776956 5.80425
H 3.26724 0.0561096 5.10482
H 4.1198 0.874785 5.07148
H 4.2711 -0.0406914 5.80098
H 3.40753 0.914032 5.83626
H 4.98728 -0.0147867 5.00186
H 5.91695 0.762784 5.02416
H 5.88204 -0.0429666 5.96549
H 5.07999 0.877855 5.91389
H 6.64177 -0.0815105 5.05064
H 7.64959 0.814913 4.94105
H 7.46719 -0.0782477 5.91181
H 6.67348 0.813145 5.81508
H 0.0295091 1.77069 5.03121
H 0.913901 2.47023 5.05855
H 0.817988 1.63458 5.92605
H 0.0365063 2.53738 5.80392
H 1.61922 1.68949 5.09529
H 2.4829 2.5303 5.04834
H 2.5152 1.73261 5.83514
H 1.6949 2.50664 5.89292
H 3.45455 1.62945 4.99428
H 4.20901 2.42118 5.00632
H 4.25007 1.66903 5.95085
H 3.3095 2.58695 5.80578
H 5.10749 1.70499 5.01986
H 5.95081 2.43391 5.10905
H 5.90346 1.65407 5.94739
H 5.01523 2.57966 5.95405
H 6.6996 1.65182 4.95256
H 7.57368 2.58004 5.08848
H 7.61837 1.70617 5.84128
H 6.76826 2.51796 5.96881
H 0.0584497 3.39921 5.00167
H 0.89395 4.10678 5.10019
H 0.800098 3.4503 5.82225
H 0.0235023 4.21001 5.82229
H 1.72819 3.38098 4.94562
H 2.59421 4.21375 5.10192
H 2.61419 3.33541 5.79476
H 1.7059 4.14492 5.87292
H 3.30697 3.43669 5.1213
H 4.25501 4.18277 4.98462
H 4.2122 3.42315 5.78215
H 3.42059 4.27868 5.92967
H 5.01563 3.25809 4.97523
H 5.93913 4.26168 5.03093
H 5.93043 3.45283 5.91736
H 5.0952 4.26934 5.87669
H 6.73947 3.30408 5.07625
H 7.51548 4.2187 5.02083
H 7.55172 3.3979 5.82946
H 6.62901 4.20225 5.82296
H 0.0592216 5.01137 5.06506
H 0.936241 5.96696 5.01465
H 0.899987 5.08133 5.829
H -0.0553347 5.77269 5.7986
H 1.75727 4.93464 4.98471
H 2.58894 5.87938 4.99219
H 2.43232 4.95218 5.94651
H 1.72487 5.95687 5.81464
H 3.32428 4.93401 5.0422
H 4.15708 5.84836 5.09787
H 4.23626 4.96651 5.85611
H 3.28115 5.88672 5.91894
H 5.10154 5.13368 5.05099
H 5.8196 5.92131 5.03025
H 5.9408 5.00509 5.91158
H 5.08266 5.909 5.87747
H 6.6584 5.06035 5.1182
H 7.52542 5.79427 5.05823
H 7.57092 4.94345 5.85808
H 6.68165 5.9572 5.9345
H 0.0883533 6.7929 4.94885
H 0.806544 7.61402 5.03692
H 0.881865 6.64675 5.98305
H -0.00357787 7.53787 5.83439
H 1.75468 6.66312 5.02958
H 2.46545 7.54163 4.97699
H 2.54164 6.76088 5.79789
H 1.71351 7.62885 5.91087
H 3.39041 6.80725 4.9804
H 4.12724 7.64424 5.13613
H 4.14096 6.75317 5.89027
H 3.31108 7.48986 5.88333
H 4.9503 6.71478 4.94908
H 5.90753 7.57716 5.01561
H 5.95921 6.71357 5.89023
H 5.02076 7.63476 5.83579
H 6.66656 6.79338 5.13494
H 7.53898 7.60284 4.94683
H 7.46241 6.71496 5.84263
H 6.63159 7.53599 5.85191
H 0.0277246 -0.0783774 6.72517
H 0.939799 0.874984 6.62648
H 0.894652 0.083041 7.60776
H -0.00600607 0.794272 7.49258
H 1.60578 -0.0786694 6.81345
H 2.52402 0.893829 6.64382
H 2.55762 0.0215624 7.50311
H 1.72652 0.772863 7.60953
H 3.384 -0.0387016 6.78585
H 4.1229 0.8358 6.64017
H 4.19383 0.0674785 7.5268
H 3.29086 0.826551 7.45922
H 5.04353 0.0634147 6.63431
H 5.96092 0.812556 6.76186
H 5.9528 0.00729038 7.47075
H 4.98049 0.905483 7.53117
H 6.77098 0.0508973 6.8147
H 7.53002 0.811642 6.76929
H 7.51588 -0.040708 7.64668
H 6.77555 0.920071 7.62419
H 0.0108479 1.73549 6.67055
H 0.7459 2.47725 6.66918
H 0.920751 1.58921 7.61256
H -0.0857862 2.52785 7.56204
H 1.63158 1.72232 6.6276
H 2.45514 2.48347 6.75023
H 2.4406 1.76515 7.59888
H 1.76905 2.59229 7.63217
H 3.37336 1.75335 6.63392
H 4.20126 2.43137 6.75572
H 4.2162 1.69445 7.62455
H 3.3438 2.53149 7.53469
H 5.09864 1.70329 6.74155
H 5.94408 2.52162 6.62696
H 5.8272 1.6335 7.52396
H 4.94236 2.59443 7.55906
H 6.68722 1.67342 6.78329
H 7.50959 2.55176 6.69311
H 7.6368 1.64521 7.57546
H 6.65983 2.51659 7.49668
H -0.0491148 3.40582 6.77551
H 0.769086 4.17614 6.77557
H 0.852625 3.39887 7.54531
H -0.0558429 4.10935 7.55988
H 1.72198 3.43295 6.63973
H 2.48886 4.26095 6.65857
H 2.45838 3.37879 7.62232
H 1.58438 4.12807 7.47001
H 3.44957 3.40383 6.74591
H 4.20227 4.17961 6.63017
H 4.2309 3.32378 7.58683
H 3.45614 4.12172 7.58147
H 4.9817 3.33163 6.77087
H 5.86099 4.1678 6.74462
H 5.92564 3.34122 7.4641
H 5.09045 4.28758 7.56108
H 6.68394 3.41282 6.75736
H 7.61464 4.2696 6.65581
H 7.55338 3.40537 7.65818
H 6.62968 4.21142 7.5674
H -0.0318978 5.02557 6.67502
H 0.74332 5.87535 6.64967
H 0.934719 4.99357 7.51179
H -0.0502688 5.9041 7.62553
H 1.65764 5.11834 6.66413
H 2.50412 5.96638 6.79071
H 2.48258 5.09419 7.64206
H 1.61929 5.90876 7.65101
H 3.38835 5.00567 6.75307
H 4.28619 5.9007 6.6656
H 4.27021 4.9715 7.5844
H 3.36197 5.90171 7.65458
H 5.10136 5.00577 6.67276
H 5.96937 5.84705 6.70565
H 5.86824 5.02111 7.47946
H 4.96586 5.8603 7.65812
H 6.65091 5.11536 6.68881
H 7.64839 5.97339 6.71232
H 7.53466 4.99714 7.6156
H 6.62054 5.95757 7.59701
H 0.0955861 6.79393 6.74851
H 0.798412 7.57045 6.80094
H 0.837763 6.79859 7.51707
H -0.03222 7.59752 7.53683
H 1.6241 6.65372 6.78637
H 2.57009 7.49985 6.73527
H 2.50014 6.77198 7.48934
H 1.68954 7.48348 7.51817
H 3.3473 6.76576 6.69436
H 4.17144 7.58125 6.79053
H 4.1882 6.67129 7.47642
H 3.2649 7.60444 7.5621
H 5.03932 6.68283 6.80624
H 5.77859 7.55006 6.66921
H 5.85809 6.80957 7.48694
H 5.05353 7.50524 7.60345
H 6.74055 6.6745 6.68686
H 7.5526 7.56795 6.72531
H 7.54306 6.76223 7.48295
H 6.72045 7.61412 7.60217
500
Atoms. Timestep: 20
H 8.39094 8.33707 8.22851
H 0.763912 0.953817 0.11732
H 0.773776 8.38682 0.952871
H 0.116323 1.01032 0.843548
H 1.62318 8.3588 8.3923
H 2.47344 0.783411 8.26501
H 2.58252 8.27276 0.658097
H 1.53035 0.950125 0.928649
H 3.25959 0.148113 8.24843
H 4.30283 0.991018 0.0106547
H 4.27425 8.24036 1.00288
H 3.38052 0.76778 0.794598
H 4.89856 0.0132851 8.29013
H 5.82095 0.848651 8.21578
H 6.02177 0.00511272 0.715126
H 5.20394 0.859288 0.917634
H 6.77328 8.31483 8.32907
H 7.52362 0.705534 8.34615
H 7.73786 0.0972378 0.730056
H 6.84934 0.675939 0.713517
H 0.0693952 1.75681 0.110966
H 0.982345 2.53942 0.11965
H 0.886445 1.8058 0.803494
H 0.105381 2.51864 0.935997
H 1.74841 1.53546 8.38691
H 2.36666 2.5716 0.17663
H 2.53448 1.75892 0.94393
H 1.69641 2.44891 0.935864
H 3.3405 1.76282 0.120802
H 4.33265 2.67954 0.131982
H 4.11862 1.64577 0.71954
H 3.44094 2.37935 1.01445
H 5.1197 1.76765 8.34024
H 5.87133 2.45062 8.2452
H 6.03087 1.52635 0.691578
H 5.08268 2.50149 0.972806
H 6.76437 1.75639 0.075905
H 7.67362 2.38167 0.17895
H 7.45802 1.53021 0.771288
H 6.73611 2.43889 0.798418
H 0.133365 3.29212 8.38051
H 0.873112 4.13425 8.27703
H 0.732744 3.50041 0.749368
H 0.0138319 4.18011 0.66964
H 1.54498 3.4429 0.122223
H 2.36716 4.18708 0.057726
H 2.37319 3.30826 0.876777
H 1.65844 4.06091 0.918756
H 3.17644 3.3872 8.31421
H 4.21824 4.13465 8.29615
H 4.17586 3.35735 0.887312
H 3.42415 4.12246 0.698446
H 5.17955 3.2429 0.0822392
H 5.98351 4.35586 8.33936
H 5.90208 3.20889 0.881312
H 5.00067 4.07987 0.803312
H 6.65345 3.40611 0.182948
H 7.55697 4.17918 0.0381259
H 7.43544 3.27421 0.85915
H 6.82771 4.23586 0.757083
H 8.32321 5.07074 8.29553
H 0.687825 5.98952 8.27401
H 0.760899 5.08572 0.976171
H 0.158193 5.82477 0.698974
H 1.70977 4.98005 8.25398
H 2.53964 5.79467 0.154029
H 2.60244 4.92609 0.738021
H 1.57104 5.7146 0.715302
H 3.34958 4.89592 0.00695609
H 4.26049 5.91953 0.0758457
H 4.35058 4.95373 0.859939
H 3.26992 5.86952 0.826926
H 4.9072 5.0709 0.038404
H 6.04073 5.8214 0.022793
H 5.71392 5.13325 0.778877
H 5.00446 5.81413 0.712075
H 6.81237 5.09568 0.0849879
H 7.62341 5.90241 0.091687
H 7.48948 4.98618 0.884623
H 6.736 5.9381 0.864655
H 8.34047 6.70378 8.3753
H 0.9424 7.66032 8.2117
H 0.992037 6.65235 0.955685
H 0.104189 7.68718 0.971111
H 1.49637 6.66556 8.30852
H 2.41227 7.45408 0.0494556
H 2.31182 6.60809 0.753353
H 1.77169 7.69158 0.813864
H 3.43297 6.76782 0.0657151
H 4.24009 7.51803 0.0927081
H 4.35073 6.72989 0.902922
H 3.46537 7.66335 0.832493
H 4.99068 6.69349 0.10959
H 5.87355 7.52582 0.146095
H 5.98999 6.70315 0.937263
H 5.20066 7.67671 0.957413
H 6.73024 6.78568 8.30045
H 7.44436 7.54148 8.3693
H 7.73843 6.69551 0.774284
H 6.67159 7.66504 0.75875
H 0.00366121 8.34008 1.80148
H 0.965061 0.704128 1.79512
H 0.67934 0.0727527 2.60601
H 0.123078 0.865721 2.52853
H 1.59344 8.35182 1.83935
H 2.45548 0.922925 1.69359
H 2.46691 0.0591859 2.63456
H 1.62711 0.717365 2.67156
H 3.30775 0.0317857 1.66868
H 4.01979 0.859508 1.6079
H 4.18064 8.35853 2.49055
H 3.20281 0.962479 2.67054
H 5.15617 0.0554464 1.83939
H 5.91119 0.69089 1.63131
H 5.84893 0.0194333 2.55446
H 5.02947 0.851914 2.63496
H 6.63724 0.0735307 1.79634
H 7.62828 0.647733 1.64307
H 7.39424 8.34297 2.53392
H 6.74783 0.779407 2.55747
H 0.0863216 1.68619 1.78905
H 0.99577 2.34642 1.76121
H 0.929744 1.68587 2.56094
H 0.164631 2.42047 2.45465
H 1.68943 1.65512 1.59434
H 2.55948 2.56102 1.66829
H 2.67703 1.81437 2.42391
H 1.82248 2.37254 2.6221
H 3.25648 1.61821 1.64727
H 4.14324 2.45334 1.72851
H 4.02186 1.58559 2.54683
H 3.32723 2.55182 2.61553
H 5.0746 1.61411 1.53429
H 5.7598 2.58835 1.6756
H 5.91371 1.53575 2.34787
H 5.16644 2.39047 2.46733
H 6.73476 1.80704 1.60633
H 7.45087 2.48189 1.73138
H 7.68343 1.79925 2.42315
H 6.60672 2.41673 2.42241
H 8.21892 3.16655 1.70466
H 0.855525 4.24425 1.68309
H 0.944784 3.19672 2.5509
H 8.34169 4.0913 2.52659
H 1.56821 3.35258 1.69548
H 2.66593 4.18757 1.75966
H 2.60349 3.35714 2.55775
H 1.65811 4.36631 2.41827
H 3.26132 3.25939 1.66843
H 4.12701 4.34098 1.68233
H 4.22984 3.3597 2.56753
H 3.52184 4.28274 2.50514
H 5.03947 3.38041 1.82254
H 5.83703 4.1753 1.4951
H 6.02538 3.5037 2.65374
H 4.90204 4.23726 2.4518
H 6.56099 3.47081 1.60233
H 7.69836 4.04688 1.77757
H 7.38033 3.25934 2.40598
H 6.8206 4.21452 2.41638
H 8.28715 4.85453 1.65715
H 0.918565 5.78995 1.7539
H 0.759215 5.12684 2.4702
H 8.36399 5.75996 2.59894
H 1.68715 5.1786 1.86665
H 2.39857 5.81661 1.77248
H 2.36542 5.19885 2.67283