3
Atoms. Timestep: 0
O 0 0 0
H 0.81649 0.577359 0
H -0.81649 0.577359 0
3
Atoms. Timestep: 1
O -2.78437e-05 -0.00057167 0.000279905
H 0.806033 0.576579 0.00362582
H -0.805591 0.587214 -0.00806885
3
Atoms. Timestep: 2
O -7.30271e-05 -0.000957571 0.000558886
H 0.793167 0.574441 0.00724006
H -0.792007 0.595477 -0.0161115
3
Atoms. Timestep: 3
O -0.000158675 -0.0011879 0.000835947
H 0.778578 0.571334 0.0108374
H -0.77606 0.60224 -0.0241067
3
Atoms. Timestep: 4
O -0.000315433 -0.00131688 0.00111013
H 0.76327 0.567876 0.0144232
H -0.758263 0.607745 -0.0320448
3
Atoms. Timestep: 5
O -0.0005804 -0.00142396 0.00138069
H 0.748572 0.564917 0.0180189
H -0.739359 0.612404 -0.0399352
3
Atoms. Timestep: 6
O -0.000989953 -0.00160899 0.00164737
H 0.736046 0.56345 0.0216661
H -0.720332 0.616808 -0.0478155
3
Atoms. Timestep: 7
O -0.00156435 -0.00197579 0.001911
H 0.72719 0.564385 0.0254234
H -0.702358 0.621696 -0.0557574
3
Atoms. Timestep: 8
O -0.00228932 -0.00260371 0.00217408
H 0.723 0.568207 0.0293535
H -0.686661 0.627841 -0.0638635
3
Atoms. Timestep: 9
O -0.00310995 -0.00351794 0.00244088
H 0.723618 0.574711 0.0335018
H -0.674252 0.635849 -0.0722467
3
Atoms. Timestep: 10
O -0.00394809 -0.004676 0.00271593
H 0.728323 0.583022 0.0378815
H -0.665653 0.64592 -0.0809925
3
Atoms. Timestep: 11
O -0.00473259 -0.00597867 0.00300182
H 0.735879 0.591896 0.0424739
H -0.660757 0.657724 -0.0901228
3
Atoms. Timestep: 12
O -0.00541928 -0.00729724 0.00329753
H 0.744949 0.60008 0.0472401
H -0.658926 0.67047 -0.0995831
3
Atoms. Timestep: 13
O -0.00599194 -0.00850214 0.00359878
H 0.754355 0.606533 0.0521333
H -0.659242 0.683143 -0.109258
3
Atoms. Timestep: 14
O -0.00645258 -0.00948238 0.00389937
H 0.763183 0.610499 0.0571074
H -0.660759 0.694736 -0.119003
3
Atoms. Timestep: 15
O -0.0068114 -0.0101537 0.00419268
H 0.770776 0.611487 0.0621213
H -0.662657 0.704405 -0.128673
3
Atoms. Timestep: 16
O -0.00708078 -0.0104592 0.00447269
H 0.7767 0.609217 0.0671412
H -0.664305 0.711523 -0.138138
3
Atoms. Timestep: 17
O -0.00727297 -0.0103661 0.0047344
H 0.780705 0.603585 0.0721414
H -0.665258 0.715679 -0.147292
3
Atoms. Timestep: 18
O -0.00740029 -0.0098637 0.00497392
H 0.782707 0.594634 0.0771062
H -0.665239 0.716655 -0.156059
3
Atoms. Timestep: 19
O -0.00747661 -0.00896141 0.00518847
H 0.782795 0.582554 0.082033
H -0.664116 0.714412 -0.164391
3
Atoms. Timestep: 20
O -0.00751972 -0.00769041 0.00537632
H 0.781255 0.567703 0.0869366
H -0.661891 0.709088 -0.172277
3
Atoms. Timestep: 21
O -0.00755408 -0.00610662 0.00553685
H 0.778614 0.55064 0.0918562
H -0.658706 0.701011 -0.179745
3
Atoms. Timestep: 22
O -0.00761302 -0.0042948 0.00567079
H 0.775694 0.532158 0.096864
H -0.65485 0.690733 -0.186878
3
Atoms. Timestep: 23
O -0.00773856 -0.00237075 0.00578071
H 0.77362 0.513289 0.10207
H -0.650783 0.67906 -0.193829
3
Atoms. Timestep: 24
O -0.00797522 -0.000476391 0.00587219
H 0.773732 0.495223 0.107614
H -0.647138 0.667056 -0.200826
3
Atoms. Timestep: 25
O -0.00835535 0.00123752 0.0059553
H 0.7773 0.479098 0.113638
H -0.644673 0.655977 -0.208169
3
Atoms. Timestep: 26
O -0.00888027 0.0026416 0.00604558
H 0.785101 0.465705 0.120223
H -0.644142 0.647082 -0.216186
3
Atoms. Timestep: 27
O -0.00951178 0.00366014 0.00616223
H 0.797057 0.455267 0.127336
H -0.646073 0.641352 -0.225151
3
Atoms. Timestep: 28
O -0.0101859 0.00428821 0.00632251
H 0.81223 0.447448 0.134821
H -0.650545 0.639201 -0.235181
3
Atoms. Timestep: 29
O -0.0108401 0.00458433 0.00653538
H 0.82918 0.441565 0.142443
H -0.657112 0.640384 -0.246181
3
Atoms. Timestep: 30
O -0.0114322 0.00464546 0.00679903
H 0.846395 0.436847 0.149951
H -0.664927 0.644132 -0.257874
3
Atoms. Timestep: 31
O -0.0119431 0.00457884 0.00710332
H 0.862576 0.432602 0.157126
H -0.672999 0.649434 -0.26988
3
Atoms. Timestep: 32
O -0.0123692 0.00448175 0.00743434
H 0.876739 0.428285 0.163801
H -0.680398 0.655292 -0.281809
3
Atoms. Timestep: 33
O -0.0127141 0.00443173 0.00777812
H 0.888193 0.423504 0.169853
H -0.686377 0.660867 -0.293318
3
Atoms. Timestep: 34
O -0.0129844 0.00448438 0.00812275
H 0.896496 0.418007 0.175199
H -0.69039 0.665529 -0.304134
3
Atoms. Timestep: 35
O -0.0131868 0.00467462 0.00845916
H 0.901395 0.411659 0.179784
H -0.692077 0.668857 -0.314059
3
Atoms. Timestep: 36
O -0.0133287 0.00501901 0.00878116
H 0.902797 0.404434 0.183577
H -0.691226 0.670616 -0.322964
3
Atoms. Timestep: 37
O -0.0134192 0.00551738 0.00908527
H 0.900754 0.396403 0.186566
H -0.687746 0.670735 -0.33078
3
Atoms. Timestep: 38
O -0.0134707 0.00615352 0.00937042
H 0.895473 0.387744 0.188761
H -0.681647 0.669297 -0.337501
3
Atoms. Timestep: 39
O -0.0135011 0.00689474 0.00963782
H 0.887347 0.378746 0.190199
H -0.673039 0.66653 -0.343184
3
Atoms. Timestep: 40
O -0.0135366 0.00769071 0.00989074
H 0.876997 0.369824 0.190957
H -0.662126 0.662817 -0.347956
3
Atoms. Timestep: 41
O -0.0136139 0.00847247 0.0101345
H 0.865323 0.361532 0.191158
H -0.649225 0.6587 -0.352025
3
Atoms. Timestep: 42
O -0.0137814 0.00915312 0.0103762
H 0.853527 0.354552 0.190985
H -0.63477 0.654875 -0.35569
3
Atoms. Timestep: 43
O -0.0140949 0.00963295 0.0106253
H 0.843046 0.349642 0.190677
H -0.619312 0.652168 -0.359337
3
Atoms. Timestep: 44
O -0.0146062 0.00981192 0.0108941
H 0.835332 0.347516 0.190487
H -0.603483 0.651454 -0.363413
3
Atoms. Timestep: 45
O -0.0153443 0.00961021 0.0111979
H 0.831472 0.348654 0.190616
H -0.587907 0.653517 -0.368364
3
Atoms. Timestep: 46
O -0.016299 0.00899173 0.0115534
H 0.831792 0.353124 0.19114
H -0.573072 0.658865 -0.374531
3
Atoms. Timestep: 47
O -0.0174204 0.00797916 0.0119735
H 0.835729 0.360509 0.191987
H -0.559209 0.667553 -0.382047
3
Atoms. Timestep: 48
O -0.0186358 0.00665146 0.0124613
H 0.842054 0.370016 0.192978
H -0.546241 0.679121 -0.390781
3
Atoms. Timestep: 49
O -0.019872 0.00512501 0.0130068
H 0.849292 0.38068 0.193909
H -0.533856 0.692687 -0.400371
3
Atoms. Timestep: 50
O -0.0210693 0.00352872 0.0135897
H 0.85608 0.39155 0.194611
H -0.521639 0.707156 -0.410325
3
Atoms. Timestep: 51
O -0.0221842 0.00198335 0.0141845
H 0.861341 0.401807 0.194977
H -0.509203 0.721428 -0.420132
3
Atoms. Timestep: 52
O -0.0231876 0.000589822 0.014766
H 0.864327 0.410811 0.194956
H -0.496262 0.734545 -0.429342
3
Atoms. Timestep: 53
O -0.0240611 -0.000574802 0.0153122
H 0.864583 0.418087 0.194551
H -0.482653 0.745755 -0.437607
3
Atoms. Timestep: 54
O -0.0247945 -0.00145671 0.0158055
H 0.86191 0.423317 0.193806
H -0.468338 0.754524 -0.444692
3
Atoms. Timestep: 55
O -0.0253848 -0.00202326 0.0162328
H 0.856328 0.426311 0.192799
H -0.453386 0.760523 -0.450468
3
Atoms. Timestep: 56
O -0.0258368 -0.00226129 0.0165853
H 0.848076 0.427004 0.191652
H -0.437959 0.763608 -0.454916
3
Atoms. Timestep: 57
O -0.0261643 -0.00217691 0.0168577
H 0.837627 0.425455 0.190531
H -0.422312 0.763818 -0.45812
3
Atoms. Timestep: 58
O -0.0263932 -0.00179684 0.0170486
H 0.825735 0.421867 0.189665
H -0.406786 0.761373 -0.460283
3
Atoms. Timestep: 59
O -0.0265643 -0.0011707 0.0171598
H 0.813476 0.416606 0.189351
H -0.391811 0.756695 -0.461734
3
Atoms. Timestep: 60
O -0.0267341 -0.000372373 0.0171974
H 0.802257 0.410211 0.189961
H -0.377896 0.750418 -0.462942
3
Atoms. Timestep: 61
O -0.0269701 0.000503405 0.0171728
H 0.793706 0.403348 0.191914
H -0.365601 0.743379 -0.464505
3
Atoms. Timestep: 62
O -0.0273348 0.00135365 0.0171038
H 0.789376 0.396676 0.195613
H -0.355481 0.736555 -0.467108
3
Atoms. Timestep: 63
O -0.027863 0.00208999 0.0170152
H 0.79027 0.390636 0.201328
H -0.347992 0.730906 -0.471417
3
Atoms. Timestep: 64
O -0.028542 0.0026639 0.0169354
H 0.796438 0.385279 0.209093
H -0.343381 0.727154 -0.477916
3
Atoms. Timestep: 65
O -0.0293149 0.00308008 0.0168891
H 0.806931 0.380264 0.218672
H -0.341605 0.725563 -0.486759
3
Atoms. Timestep: 66
O -0.0301032 0.0033901 0.0168883
H 0.820166 0.375035 0.229631
H -0.342327 0.72587 -0.497705
3
Atoms. Timestep: 67
O -0.0308323 0.00367199 0.0169297
H 0.834414 0.369038 0.24146
H -0.345002 0.727393 -0.510192
3
Atoms. Timestep: 68
O -0.031446 0.00400778 0.0169985
H 0.848152 0.361843 0.253666
H -0.348998 0.729258 -0.523489
3
Atoms. Timestep: 69
O -0.0319083 0.00446774 0.0170746
H 0.8602 0.353187 0.265831
H -0.353709 0.730612 -0.536861
3
Atoms. Timestep: 70
O -0.0322003 0.005103 0.0171389
H 0.869735 0.342959 0.277616
H -0.358609 0.730757 -0.549668
3
Atoms. Timestep: 71
O -0.0323157 0.00594409 0.0171764
H 0.876237 0.331165 0.288764
H -0.363278 0.729201 -0.561412
3
Atoms. Timestep: 72
O -0.0322583 0.00700221 0.0171772
H 0.87944 0.317908 0.299087
H -0.367392 0.725661 -0.571746
3
Atoms. Timestep: 73
O -0.0320401 0.00827098 0.0171368
H 0.879298 0.303377 0.308454
H -0.370713 0.720053 -0.580473
3
Atoms. Timestep: 74
O -0.0316824 0.00972747 0.0170562
H 0.875976 0.287836 0.316792
H -0.373069 0.712474 -0.587531
3
Atoms. Timestep: 75
O -0.0312167 0.0113325 0.0169409
H 0.869861 0.271636 0.324088
H -0.374348 0.703196 -0.592997
3
Atoms. Timestep: 76
O -0.030687 0.0130307 0.0168009
H 0.861594 0.25521 0.330404
H -0.374488 0.692667 -0.59709
3
Atoms. Timestep: 77
O -0.0301519 0.0147506 0.0166498
H 0.852095 0.239078 0.335886
H -0.373483 0.681499 -0.600175
3
Atoms. Timestep: 78
O -0.0296843 0.0164077 0.0165042
H 0.842564 0.223819 0.340781
H -0.371374 0.670455 -0.602757
3
Atoms. Timestep: 79
O -0.0293663 0.0179106 0.0163822
H 0.83439 0.210028 0.345413
H -0.368248 0.660388 -0.605454
3
Atoms. Timestep: 80
O -0.0292773 0.0191729 0.0163033
H 0.828943 0.198235 0.35013
H -0.364214 0.652144 -0.608918
3
Atoms. Timestep: 81
O -0.0294754 0.0201276 0.0162871
H 0.827246 0.188804 0.355192
H -0.359371 0.646421 -0.613724
3
Atoms. Timestep: 82
O -0.0299808 0.0207412 0.0163522
H 0.829665 0.181864 0.360669
H -0.353769 0.64362 -0.620232
3
Atoms. Timestep: 83
O -0.0307702 0.0210206 0.0165119
H 0.8358 0.177299 0.366389
H -0.347374 0.643751 -0.628487
3
Atoms. Timestep: 84
O -0.0317869 0.0210088 0.0167701
H 0.844645 0.174802 0.372002
H -0.340081 0.646436 -0.638199
3
Atoms. Timestep: 85
O -0.0329583 0.0207734 0.0171188
H 0.854905 0.173961 0.37709
H -0.331746 0.651013 -0.648823
3
Atoms. Timestep: 86
O -0.0342113 0.020392 0.0175399
H 0.865282 0.174345 0.381263
H -0.322234 0.656684 -0.65968
3
Atoms. Timestep: 87
O -0.0354811 0.0199402 0.0180094
H 0.874652 0.175551 0.384215
H -0.311449 0.662649 -0.670086
3
Atoms. Timestep: 88
O -0.0367144 0.0194841 0.0185024
H 0.882132 0.177236 0.385736
H -0.299351 0.668203 -0.679432
3
Atoms. Timestep: 89
O -0.0378697 0.0190771 0.018996
H 0.887073 0.179123 0.385698
H -0.285953 0.672777 -0.687229
3
Atoms. Timestep: 90
O -0.0389165 0.0187587 0.0194717
H 0.889045 0.181002 0.384041
H -0.271309 0.675952 -0.693123
3
Atoms. Timestep: 91
O -0.0398344 0.0185556 0.0199156
H 0.887812 0.182722 0.380767
H -0.255507 0.677456 -0.696895
3
Atoms. Timestep: 92
O -0.0406129 0.0184817 0.0203187
H 0.883323 0.18419 0.375932
H -0.23866 0.677161 -0.698459
3
Atoms. Timestep: 93
O -0.0412528 0.0185391 0.0206766
H 0.875726 0.185364 0.369658
H -0.220905 0.675076 -0.697866
3
Atoms. Timestep: 94
O -0.0417683 0.0187175 0.0209892
H 0.865407 0.186256 0.362146
H -0.202404 0.671352 -0.695315
3
Atoms. Timestep: 95
O -0.0421908 0.0189929 0.0212598
H 0.853054 0.186938 0.35371
H -0.183345 0.666298 -0.691175
3
Atoms. Timestep: 96
O -0.042573 0.0193273 0.0214952
H 0.839727 0.187544 0.344808
H -0.163951 0.660385 -0.68601
3
Atoms. Timestep: 97
O -0.0429915 0.019668 0.021704
H 0.826901 0.18827 0.336065
H -0.144482 0.65425 -0.68058
3
Atoms. Timestep: 98
O -0.043542 0.0199527 0.0218961
H 0.816379 0.189352 0.328246
H -0.125221 0.64865 -0.675811
3
Atoms. Timestep: 99
O -0.0443195 0.0201195 0.0220831
H 0.809966 0.190999 0.322146
H -0.106466 0.644355 -0.67268
3
Atoms. Timestep: 100
O -0.0453846 0.0201255 0.0222783
H 0.808899 0.193283 0.31838
H -0.0884929 0.641975 -0.672011
3
Atoms. Timestep: 101
O -0.0467315 0.0199644 0.0224943
H 0.813318 0.196051 0.317192
H -0.0715325 0.641765 -0.674253
3
Atoms. Timestep: 102
O -0.0482838 0.0196723 0.0227376
H 0.822189 0.198926 0.318412
H -0.055763 0.643526 -0.679334
3
Atoms. Timestep: 103
O -0.0499224 0.0193177 0.0230016
H 0.833752 0.20142 0.321593
H -0.0413156 0.646661 -0.686707
3
Atoms. Timestep: 104
O -0.0515222 0.0189812 0.0232673
H 0.846118 0.203066 0.3262
H -0.0282879 0.650357 -0.69553
3
Atoms. Timestep: 105
O -0.0529763 0.0187382 0.0235082
H 0.857664 0.203502 0.33174
H -0.0167525 0.653778 -0.704894
3
Atoms. Timestep: 106
O -0.0542047 0.0186494 0.0236977
H 0.867172 0.202487 0.337812
H -0.00676098 0.656203 -0.713975
3
Atoms. Timestep: 107
O -0.0551527 0.0187578 0.0238132
H 0.873804 0.199887 0.344118
H 0.0016549 0.657081 -0.722113
3
Atoms. Timestep: 108
O -0.0557865 0.0190903 0.0238384
H 0.877038 0.19565 0.350441
H 0.00848161 0.656041 -0.728837
3
Atoms. Timestep: 109
O -0.0560891 0.0196593 0.0237638
H 0.876598 0.189783 0.356639
H 0.013724 0.652875 -0.73385
3
Atoms. Timestep: 110
O -0.0560581 0.0204653 0.0235861
H 0.872424 0.182339 0.362632
H 0.0174075 0.647526 -0.737024
3
Atoms. Timestep: 111
O -0.0557059 0.0214966 0.0233087
H 0.864657 0.173418 0.368405
H 0.0195841 0.640076 -0.738393
3
Atoms. Timestep: 112
O -0.0550617 0.0227296 0.0229409
H 0.853673 0.163164 0.374016
H 0.0203416 0.630759 -0.738165
3
Atoms. Timestep: 113
O -0.054176 0.0241265 0.0224984
H 0.840138 0.151781 0.379616
H 0.0198176 0.619967 -0.736741
3
Atoms. Timestep: 114
O -0.0531261 0.0256349 0.022003
H 0.825075 0.139536 0.385473
H 0.0182138 0.60827 -0.734735
3
Atoms. Timestep: 115
O -0.0520188 0.0271872 0.0214813
H 0.809906 0.126757 0.391999
H 0.015807 0.596408 -0.732979
3
Atoms. Timestep: 116
O -0.0509862 0.0287059 0.0209623
H 0.796377 0.113813 0.399726
H 0.012946 0.585246 -0.732468
3
Atoms. Timestep: 117
O -0.0501657 0.0301146 0.0204745
H 0.786274 0.101056 0.409207
H 0.010025 0.575641 -0.734206
3
Atoms. Timestep: 118
O -0.0496644 0.0313553 0.0200426
H 0.78091 0.0887557 0.420812
H 0.00743119 0.568248 -0.738956
3
Atoms. Timestep: 119
O -0.0495242 0.0324022 0.0196856
H 0.780634 0.0770534 0.434507
H 0.00548274 0.563333 -0.746984
3
Atoms. Timestep: 120
O -0.049712 0.0332662 0.0194133
H 0.784715 0.0659764 0.449792
H 0.00438148 0.560695 -0.757947
3
Atoms. Timestep: 121
O -0.0501412 0.0339857 0.0192235
H 0.791707 0.0554856 0.465854
H 0.00420221 0.559765 -0.770996
3
Atoms. Timestep: 122
O -0.0507066 0.0346116 0.0191022
H 0.799969 0.0455227 0.481817
H 0.00491545 0.559793 -0.785033
3
Atoms. Timestep: 123
O -0.0513107 0.035194 0.0190283
H 0.808047 0.0360362 0.496918
H 0.00642669 0.560035 -0.798961
3
Atoms. Timestep: 124
O -0.0518752 0.0357748 0.0189789
H 0.81482 0.02699 0.510577
H 0.00861515 0.559861 -0.811835
3
Atoms. Timestep: 125
O -0.0523435 0.0363853 0.0189336
H 0.819504 0.0183657 0.522391
H 0.0113634 0.558795 -0.822931
3
Atoms. Timestep: 126
O -0.052678 0.0370458 0.0188771
H 0.821601 0.0101621 0.532095
H 0.0145766 0.556515 -0.831739
3
Atoms. Timestep: 127
O -0.052858 0.0377669 0.0187998
H 0.82084 0.00239429 0.539528
H 0.018194 0.552836 -0.837943
3
Atoms. Timestep: 128
O -0.0528767 0.038551 0.0186977
H 0.817135 -0.00490834 0.544605
H 0.0221962 0.547692 -0.8414
3
Atoms. Timestep: 129
O -0.052741 0.0393932 0.0185729
H 0.810568 -0.0117039 0.54731
H 0.0266099 0.541119 -0.842124
3
Atoms. Timestep: 130
O -0.0524715 0.0402814 0.0184333
H 0.801386 -0.0179419 0.547689
H 0.0315131 0.533258 -0.840287
3
Atoms. Timestep: 131
O -0.052104 0.041197 0.0182921
H 0.790025 -0.0235684 0.545873
H 0.0370399 0.524351 -0.83623
3
Atoms. Timestep: 132
O -0.0516921 0.0421152 0.0181676
H 0.777143 -0.0285349 0.542095
H 0.0433838 0.514743 -0.830477
3
Atoms. Timestep: 133
O -0.0513094 0.0430057 0.0180816
H 0.763658 -0.0328122 0.53673
H 0.0507957 0.504885 -0.823746
3
Atoms. Timestep: 134
O -0.0510501 0.0438356 0.0180559
H 0.750764 -0.0364064 0.530322
H 0.0595719 0.495306 -0.816929
3
Atoms. Timestep: 135
O -0.0510234 0.0445733 0.0181076
H 0.73989 -0.0393751 0.523583
H 0.0700232 0.486565 -0.811011
3
Atoms. Timestep: 136
O -0.0513397 0.0451949 0.0182441
H 0.732513 -0.0418305 0.517316
H 0.0824214 0.479154 -0.806911
3
Atoms. Timestep: 137
O -0.0520836 0.0456902 0.0184607
H 0.729816 -0.0439193 0.512232
H 0.0969251 0.473381 -0.805266
3
Atoms. Timestep: 138
O -0.0532839 0.0460664 0.0187429
H 0.732287 -0.0457802 0.508719
H 0.113507 0.46927 -0.806232
3
Atoms. Timestep: 139
O -0.0548971 0.0463463 0.0190709
H 0.739484 -0.0475049 0.506708
H 0.131917 0.466552 -0.809427
3
Atoms. Timestep: 140
O -0.0568168 0.0465627 0.0194232
H 0.750172 -0.0491279 0.505744
H 0.151701 0.464738 -0.814056
3
Atoms. Timestep: 141
O -0.0589029 0.0467518 0.0197773
H 0.762712 -0.0506467 0.505195
H 0.172275 0.463256 -0.819128
3
Atoms. Timestep: 142
O -0.0610133 0.0469468 0.0201104
H 0.775472 -0.0520483 0.50446
H 0.193015 0.461563 -0.823681
3
Atoms. Timestep: 143
O -0.063024 0.047175 0.020401
H 0.787074 -0.0533255 0.503084
H 0.213329 0.459218 -0.826916
3
Atoms. Timestep: 144
O -0.0648372 0.0474564 0.0206307
H 0.796478 -0.0544835 0.500777
H 0.232707 0.455908 -0.828256
3
Atoms. Timestep: 145
O -0.0663818 0.0478043 0.0207856
H 0.802972 -0.0555408 0.497405
H 0.25073 0.451444 -0.827343
3
Atoms. Timestep: 146
O -0.0676103 0.0482254 0.020857
H 0.806126 -0.0565291 0.492962
H 0.267077 0.445747 -0.824032
3
Atoms. Timestep: 147
O -0.0684965 0.0487217 0.0208411
H 0.80575 -0.0574953 0.487552
H 0.281521 0.438836 -0.81837
3
Atoms. Timestep: 148
O -0.0690342 0.0492901 0.0207397
H 0.80188 -0.0585059 0.481388
H 0.293926 0.430824 -0.810597
3
Atoms. Timestep: 149
O -0.0692376 0.0499236 0.0205598
H 0.79478 -0.0596528 0.474802
H 0.304254 0.421916 -0.801155
3
Atoms. Timestep: 150
O -0.0691444 0.050611 0.0203134
H 0.784975 -0.0610624 0.468265
H 0.312579 0.412413 -0.790707
3
Atoms. Timestep: 151
O -0.0688191 0.0513379 0.0200174
H 0.773291 -0.0629039 0.462406
H 0.3191 0.402717 -0.780149
3
Atoms. Timestep: 152
O -0.068355 0.0520875 0.0196911
H 0.760876 -0.0653939 0.458022
H 0.324147 0.393309 -0.770586
3
Atoms. Timestep: 153
O -0.0678684 0.0528431 0.0193535
H 0.749139 -0.068788 0.456028
H 0.32816 0.384708 -0.763232
3
Atoms. Timestep: 154
O -0.0674803 0.0535918 0.0190182
H 0.73953 -0.073345 0.457323
H 0.33161 0.377381 -0.759206
3
Atoms. Timestep: 155
O -0.0672834 0.054327 0.0186912
H 0.73314 -0.0792601 0.462559
H 0.334874 0.371627 -0.759251
3
Atoms. Timestep: 156
O -0.0673093 0.0550494 0.0183706
H 0.730303 -0.0865851 0.471892
H 0.338121 0.367484 -0.763496
3
Atoms. Timestep: 157
O -0.0675168 0.0557649 0.0180501
H 0.730455 -0.0951871 0.484891
H 0.341263 0.364729 -0.771406
3
Atoms. Timestep: 158
O -0.0678114 0.056481 0.0177208
H 0.73238 -0.104776 0.500662
H 0.344015 0.362951 -0.78195
3
Atoms. Timestep: 159
O -0.0680804 0.0572043 0.0173737
H 0.734652 -0.114983 0.518117
H 0.346013 0.361677 -0.793895
3
Atoms. Timestep: 160
O -0.0682212 0.0579392 0.0170002
H 0.735985 -0.125437 0.536204
H 0.346916 0.360465 -0.806055
3
Atoms. Timestep: 161
O -0.0681563 0.0586874 0.0165941
H 0.7354 -0.135809 0.554031
H 0.34647 0.358961 -0.817436
3
Atoms. Timestep: 162
O -0.0678355 0.0594484 0.016152
H 0.732249 -0.145835 0.570905
H 0.34453 0.356907 -0.827291
3
Atoms. Timestep: 163
O -0.0672341 0.0602196 0.0156741
H 0.726172 -0.155313 0.586317
H 0.34106 0.354143 -0.835118
3
Atoms. Timestep: 164
O -0.0663491 0.0609969 0.015165
H 0.717051 -0.164096 0.599914
H 0.336133 0.350587 -0.840633
3
Atoms. Timestep: 165
O -0.0651973 0.0617752 0.0146337
H 0.704974 -0.17209 0.611476
H 0.329926 0.346227 -0.843762
3
Atoms. Timestep: 166
O -0.0638141 0.0625485 0.0140939
H 0.690219 -0.179252 0.620908
H 0.322726 0.341115 -0.844626
3
Atoms. Timestep: 167
O -0.0622548 0.0633105 0.0135643
H 0.673256 -0.185594 0.628238
H 0.314938 0.335361 -0.84355
3
Atoms. Timestep: 168
O -0.060595 0.0640558 0.013068
H 0.654758 -0.191196 0.633637
H 0.307088 0.329132 -0.84107
3
Atoms. Timestep: 169
O -0.0589308 0.064781 0.0126303
H 0.635612 -0.196217 0.637441
H 0.299818 0.322642 -0.837926
3
Atoms. Timestep: 170
O -0.0573754 0.0654867 0.0122754
H 0.616896 -0.200907 0.640161
H 0.293846 0.316132 -0.835013
3
Atoms. Timestep: 171
O -0.0560499 0.0661792 0.01202
H 0.599807 -0.205601 0.642465
H 0.289893 0.309833 -0.833263
3
Atoms. Timestep: 172
O -0.0550663 0.0668717 0.0118671
H 0.585515 -0.210675 0.64509
H 0.288573 0.303914 -0.83346
3
Atoms. Timestep: 173
O -0.0545064 0.0675823 0.0118034
H 0.574929 -0.216472 0.648668
H 0.290272 0.298432 -0.836028
3
Atoms. Timestep: 174
O -0.0544022 0.0683291 0.0118035
H 0.568485 -0.223202 0.653535
H 0.29506 0.293308 -0.840897
3
Atoms. Timestep: 175
O -0.0547283 0.0691241 0.0118384
H 0.566031 -0.230867 0.659606
H 0.302692 0.288354 -0.847521
3
Atoms. Timestep: 176
O -0.0554118 0.0699699 0.0118836
H 0.566899 -0.239266 0.666401
H 0.312673 0.283327 -0.855034
3
Atoms. Timestep: 177
O -0.0563513 0.0708601 0.0119216
H 0.570113 -0.248057 0.673216
H 0.324371 0.277987 -0.862451
3
Atoms. Timestep: 178
O -0.0574385 0.0717824 0.0119409
H 0.574619 -0.256848 0.679302
H 0.337123 0.272138 -0.868845
3
Atoms. Timestep: 179
O -0.0585735 0.072722 0.011934
H 0.57945 -0.265268 0.684001
H 0.350309 0.265644 -0.873434
3
Atoms. Timestep: 180
O -0.0596722 0.0736641 0.0118955
H 0.583806 -0.273001 0.686802
H 0.363392 0.258423 -0.875623
3
Atoms. Timestep: 181
O -0.0606692 0.0745953 0.0118217
H 0.587079 -0.279805 0.687351
H 0.375945 0.250444 -0.875001
3
Atoms. Timestep: 182
O -0.0615174 0.0755046 0.011711
H 0.588842 -0.285508 0.685439
H 0.387646 0.241715 -0.871332
3
Atoms. Timestep: 183
O -0.062187 0.0763828 0.0115641
H 0.588834 -0.290009 0.680979
H 0.398283 0.232274 -0.864541
3
Atoms. Timestep: 184
O -0.0626648 0.0772239 0.0113843
H 0.586946 -0.293274 0.674009
H 0.407755 0.222188 -0.854716
3
Atoms. Timestep: 185
O -0.0629547 0.0780248 0.0111783
H 0.583221 -0.295346 0.664691
H 0.416082 0.211548 -0.842128
3
Atoms. Timestep: 186
O -0.0630796 0.0787863 0.0109565
H 0.577867 -0.296359 0.653342
H 0.423418 0.200474 -0.827258
3
Atoms. Timestep: 187
O -0.0630839 0.0795146 0.0107334
H 0.571277 -0.29656 0.640466
H 0.430076 0.189113 -0.810841
3
Atoms. Timestep: 188
O -0.0630363 0.0802232 0.0105262
H 0.564058 -0.296339 0.626805
H 0.43654 0.177646 -0.793892
3
Atoms. Timestep: 189
O -0.0630292 0.0809335 0.0103525
H 0.557036 -0.296242 0.613356
H 0.443449 0.166273 -0.777685
3
Atoms. Timestep: 190
O -0.063169 0.0816755 0.0102238
H 0.551191 -0.296945 0.601325
H 0.451514 0.155197 -0.763611
3
Atoms. Timestep: 191
O -0.0635532 0.0824821 0.0101393
H 0.547474 -0.299149 0.591956
H 0.46133 0.144597 -0.752901
3
Atoms. Timestep: 192
O -0.0642366 0.0833789 0.0100831
H 0.54651 -0.303382 0.586214
H 0.473142 0.134596 -0.746266
3
Atoms. Timestep: 193
O -0.0652034 0.0843717 0.0100287
H 0.548307 -0.309802 0.584488
H 0.48669 0.125256 -0.743678
3
Atoms. Timestep: 194
O -0.0663659 0.0854408 0.0099501
H 0.552201 -0.318117 0.586487
H 0.50125 0.116602 -0.744429
3
Atoms. Timestep: 195
O -0.0675924 0.0865464 0.0098284
H 0.557074 -0.327701 0.591415
H 0.515845 0.108636 -0.747425
3
Atoms. Timestep: 196
O -0.0687439 0.087641 0.00965366
H 0.5617 -0.337802 0.598276
H 0.529497 0.101363 -0.751512
3
Atoms. Timestep: 197
O -0.0697003 0.0886794 0.00942233
H 0.565001 -0.347712 0.606121
H 0.541377 0.0947898 -0.755685
3
Atoms. Timestep: 198
O -0.0703712 0.0896248 0.00913476
H 0.566161 -0.356854 0.614167
H 0.550867 0.0889245 -0.759167
3
Atoms. Timestep: 199
O -0.0706958 0.0904498 0.00879362
H 0.564625 -0.364801 0.621827
H 0.557555 0.0837761 -0.761411
3
Atoms. Timestep: 200
O -0.0706385 0.0911358 0.00840332
H 0.560065 -0.371266 0.628691
H 0.561206 0.0793518 -0.76208
3
Atoms. Timestep: 201
O -0.0701852 0.0916717 0.00797
H 0.552333 -0.376075 0.634502
H 0.561742 0.0756545 -0.761013
3
Atoms. Timestep: 202
O -0.0693406 0.0920536 0.00750197
H 0.541436 -0.379163 0.639138
H 0.559233 0.0726808 -0.758219
3
Atoms. Timestep: 203
O -0.0681289 0.0922847 0.00701044
H 0.527529 -0.380566 0.642603
H 0.553906 0.070415 -0.753882
3
Atoms. Timestep: 204
O -0.0665955 0.0923771 0.00651038
H 0.510919 -0.38044 0.645043
H 0.546176 0.0688232 -0.748385
3
Atoms. Timestep: 205
O -0.0648117 0.0923532 0.00602123
H 0.492097 -0.37908 0.646765
H 0.536682 0.0678428 -0.742343
3
Atoms. Timestep: 206
O -0.0628777 0.0922487 0.0055665
H 0.471762 -0.376953 0.648274
H 0.526319 0.0673735 -0.736633
3
Atoms. Timestep: 207
O -0.0609222 0.0921141 0.00517092
H 0.450824 -0.374713 0.650283
H 0.516216 0.0672705 -0.732362
3
Atoms. Timestep: 208
O -0.05909 0.0920119 0.00485379
H 0.430345 -0.373167 0.653676
H 0.507612 0.0673473 -0.730722
3
Atoms. Timestep: 209
O -0.0575163 0.0920082 0.00461964
H 0.41138 -0.373156 0.659355
H 0.501598 0.067395 -0.732684
3
Atoms. Timestep: 210
O -0.0562908 0.0921567 0.00445239
H 0.394725 -0.375334 0.667964
H 0.498799 0.0672147 -0.738639
3
Atoms. Timestep: 211
O -0.0554322 0.0924828 0.00432033
H 0.380702 -0.379946 0.679612
H 0.499193 0.0666515 -0.74819
3
Atoms. Timestep: 212
O -0.0548903 0.0929761 0.00419033
H 0.369108 -0.386742 0.693767
H 0.502185 0.0656161 -0.760282
3
Atoms. Timestep: 213
O -0.0545717 0.0935985 0.00403975
H 0.359365 -0.395089 0.70943
H 0.506872 0.0640845 -0.773554
3
Atoms. Timestep: 214
O -0.0543719 0.0942982 0.00385902
H 0.350758 -0.404195 0.725431
H 0.512308 0.0620834 -0.786687
3
Atoms. Timestep: 215
O -0.0541975 0.0950236 0.00364781
H 0.342621 -0.413296 0.740693
H 0.517675 0.0596694 -0.798596
3
Atoms. Timestep: 216
O -0.0539752 0.0957309 0.00341021
H 0.334427 -0.421763 0.754347
H 0.522341 0.0569095 -0.808479
3
Atoms. Timestep: 217
O -0.0536539 0.0963866 0.00315167
H 0.325808 -0.429128 0.765766
H 0.525859 0.053866 -0.815793
3
Atoms. Timestep: 218
O -0.0532019 0.0969679 0.00287769
H 0.316541 -0.435077 0.774526
H 0.527952 0.0505869 -0.820205
3
Atoms. Timestep: 219
O -0.0526047 0.0974617 0.00259364
H 0.306528 -0.439426 0.780378
H 0.528485 0.0470989 -0.821547
3
Atoms. Timestep: 220
O -0.0518622 0.0978638 0.00230514
H 0.295774 -0.442112 0.783207
H 0.527455 0.0434022 -0.819797
3
Atoms. Timestep: 221
O -0.0509889 0.0981787 0.00201868
H 0.284377 -0.443174 0.783024
H 0.524988 0.0394655 -0.815067
3
Atoms. Timestep: 222
O -0.050013 0.0984205 0.0017424
H 0.272524 -0.442766 0.779958
H 0.521351 0.0352204 -0.807616
3
Atoms. Timestep: 223
O -0.0489783 0.0986131 0.0014868
H 0.260488 -0.441159 0.774273
H 0.516963 0.0305554 -0.797874
3
Atoms. Timestep: 224
O -0.047945 0.0987926 0.00126518
H 0.248627 -0.438763 0.766389
H 0.512422 0.0253102 -0.786472
3
Atoms. Timestep: 225
O -0.0469892 0.0990074 0.00109291
H 0.237378 -0.436137 0.756909
H 0.508498 0.0192745 -0.774257
3
Atoms. Timestep: 226
O -0.0461994 0.0993179 0.000984622
H 0.227238 -0.43399 0.746628
H 0.506101 0.0121976 -0.762258
3
Atoms. Timestep: 227
O -0.045666 0.0997922 0.000948274
H 0.218709 -0.433136 0.736503
H 0.506163 0.00381693 -0.751556
3
Atoms. Timestep: 228
O -0.0454632 0.100495 0.000977461
H 0.212227 -0.43439 0.727528
H 0.509427 -0.00608743 -0.743044
3
Atoms. Timestep: 229
O -0.0456273 0.101473 0.00104718
H 0.208049 -0.438378 0.720526
H 0.51621 -0.0176193 -0.737148
3
Atoms. Timestep: 230
O -0.0461415 0.102736 0.00111906
H 0.206169 -0.445348 0.715909
H 0.526253 -0.0307034 -0.733672
3
Atoms. Timestep: 231
O -0.0469376 0.104253 0.001155
H 0.206283 -0.455051 0.713547
H 0.538774 -0.04507 -0.731881
3
Atoms. Timestep: 232
O -0.0479132 0.105952 0.00112959
H 0.207856 -0.466802 0.712845
H 0.552688 -0.0602997 -0.730776
3
Atoms. Timestep: 233
O -0.0489559 0.107745 0.00103366
H 0.21024 -0.479661 0.712957
H 0.566856 -0.075901 -0.729365
3
Atoms. Timestep: 234
O -0.0499618 0.109539 0.000870293
H 0.212795 -0.492652 0.713029
H 0.580268 -0.0913844 -0.726843
3
Atoms. Timestep: 235
O -0.0508457 0.111252 0.000648825
H 0.214966 -0.504911 0.712347
H 0.592126 -0.106311 -0.722646
3
Atoms. Timestep: 236
O -0.0515436 0.112817 0.00038039
H 0.216315 -0.515754 0.710406
H 0.601855 -0.120315 -0.716444
3
Atoms. Timestep: 237
O -0.0520119 0.114186 7.57053e-05
H 0.21652 -0.524692 0.706902
H 0.609085 -0.133107 -0.708103
3
Atoms. Timestep: 238
O -0.0522249 0.115326 -0.000255569
H 0.215357 -0.531419 0.701722
H 0.613627 -0.144471 -0.697665
3
Atoms. Timestep: 239
O -0.0521723 0.116218 -0.000604588
H 0.212689 -0.535793 0.694922
H 0.615461 -0.154261 -0.685325
3
Atoms. Timestep: 240
O -0.0518595 0.11686 -0.00096265
H 0.208449 -0.537835 0.686725
H 0.614736 -0.162405 -0.671444
3
Atoms. Timestep: 241
O -0.0513082 0.117263 -0.00132033
H 0.202638 -0.537734 0.677523
H 0.611796 -0.168914 -0.656565
3
Atoms. Timestep: 242
O -0.0505583 0.11746 -0.00166659
H 0.195319 -0.535858 0.667895
H 0.607212 -0.173904 -0.64144
3
Atoms. Timestep: 243
O -0.0496701 0.117499 -0.00198843
H 0.186622 -0.532777 0.658616
H 0.601809 -0.177613 -0.627053
3
Atoms. Timestep: 244
O -0.0487225 0.117454 -0.00227166
H 0.176738 -0.529257 0.650636
H 0.596652 -0.180408 -0.614577
3
Atoms. Timestep: 245
O -0.0478048 0.117408 -0.00250429
H 0.165897 -0.52619 0.644995
H 0.592926 -0.182745 -0.605243
3
Atoms. Timestep: 246
O -0.0469967 0.117444 -0.00268215
H 0.154324 -0.52445 0.642647
H 0.591671 -0.185064 -0.600072
3
Atoms. Timestep: 247
O -0.0463438 0.117619 -0.00281386
H 0.142182 -0.524657 0.644213
H 0.59345 -0.187633 -0.599547
3
Atoms. Timestep: 248
O -0.0458411 0.117942 -0.00291959
H 0.129526 -0.526972 0.649765
H 0.598127 -0.190447 -0.603421
3
Atoms. Timestep: 249
O -0.0454375 0.118374 -0.00302256
H 0.116306 -0.531035 0.658778
H 0.60494 -0.193245 -0.6108
3
Atoms. Timestep: 250
O -0.0450581 0.118844 -0.0031397
H 0.102426 -0.536101 0.670284
H 0.612798 -0.195633 -0.620446
3
Atoms. Timestep: 251
O -0.0446279 0.11927 -0.00327785
H 0.0877993 -0.541272 0.683133
H 0.620596 -0.197227 -0.631102
3
Atoms. Timestep: 252
O -0.0440869 0.119581 -0.00343562
H 0.0723922 -0.545707 0.696222
H 0.627415 -0.197726 -0.641687
3
Atoms. Timestep: 253
O -0.0433943 0.119722 -0.00360706
H 0.0562322 -0.548729 0.708623
H 0.632581 -0.196944 -0.651367
3
Atoms. Timestep: 254
O -0.0425282 0.119659 -0.00378479
H 0.039402 -0.549867 0.719627
H 0.635664 -0.1948 -0.659549
3
Atoms. Timestep: 255
O -0.0414825 0.119375 -0.00396161
H 0.0220284 -0.548849 0.728736
H 0.636439 -0.19131 -0.665852
3
Atoms. Timestep: 256
O -0.0402648 0.118871 -0.00413106
H 0.00427157 -0.545583 0.735644
H 0.634866 -0.186577 -0.67007
3
Atoms. Timestep: 257
O -0.0388946 0.118163 -0.00428731
H -0.0136812 -0.540145 0.740209
H 0.63107 -0.180789 -0.672155
3
Atoms. Timestep: 258